LAMMPS Description

     2  atoms
     2  atom types

  0.0 25.26 xlo xhi
  0.0 25.26 ylo yhi
  0.0 25.26 zlo zhi

Masses

1 6.941  # Li
2 35.453  # Cl

Atoms  # full

1 1 1.0 1.0 1.0 1.0
2 2 -1.0 9.42 1.04 1.02
