ITEM: TIMESTEP
0
ITEM: NUMBER OF ATOMS
248
ITEM: BOX BOUNDS pp pp pp
0.0000000000000000e+00 1.3867400000000000e+01
0.0000000000000000e+00 1.3867400000000000e+01
0.0000000000000000e+00 1.3867400000000000e+01
ITEM: ATOMS id element fx fy fz
1 O -0.807171 -0.773697 -0.0230867
2 H 1.18851 0.393898 0.0743387
3 H -0.115348 0.276822 -0.168027
4 O -1.42462 -0.643326 1.86669
5 H -0.33724 -0.72416 -1.18513
6 H 1.3962 1.08326 0.0483969
7 O 2.10794 -0.400362 0.330052
8 H -0.588896 -0.384537 0.156715
9 H -1.40337 0.552969 -0.606621
10 O -0.0202712 0.090802 -0.0273714
11 H -0.147108 0.351238 0.321679
12 H -0.147416 -0.250049 -0.320119
13 O -0.631694 -0.966226 -0.502604
14 H -0.00945001 0.861238 0.55046
15 H 0.359554 0.154328 0.051051
16 O -0.220528 1.53296 1.26456
17 H 0.416245 -0.500539 -0.164884
18 H -0.102183 -1.0319 -1.61992
19 O 0.0161341 -0.176399 -0.962712
20 H 0.217403 0.80512 0.668074
21 H 0.111681 -0.643907 0.501201
22 O -0.822945 -0.473912 -0.550446
23 H 0.523274 -0.0434246 1.09139
24 H 0.308429 0.342371 -0.146549
25 O -1.23668 -0.508882 0.391275
26 H 0.958119 0.77537 -0.112807
27 H 0.643153 -0.189627 -0.340134
28 O -0.955057 0.454147 1.10865
29 H 0.792055 -0.314112 -0.596822
30 H -0.062318 0.0194986 -0.446812
31 O -0.946837 -0.156432 0.269694
32 H 0.188365 0.696616 -0.452309
33 H 0.635351 -0.55648 0.329308
34 O -0.195572 0.00905044 -0.207663
35 H -0.342706 0.802658 0.447828
36 H 0.592764 -0.293723 -0.0372935
37 O 1.90415 -0.408288 1.22152
38 H -0.816693 0.683627 0.546312
39 H -1.10427 -0.0907189 -1.3326
40 O 0.399639 0.530713 0.228039
41 H 0.0756419 -0.0504944 -0.337347
42 H -0.17733 -0.672995 0.0664656
43 O -0.770438 -1.02209 0.198879
44 H 0.242461 0.739053 -0.496585
45 H 0.238211 0.133728 0.127896
46 O 0.725424 0.618735 -0.283568
47 H -0.567753 -0.838011 0.52505
48 H -0.218983 0.568774 -0.181792
49 O -0.0584952 0.941235 -1.1853
50 H 0.423547 -0.784912 1.30648
51 H -0.467908 -0.110356 -0.331293
52 O -1.05365 -0.172562 2.11979
53 H 1.23801 -0.40821 -2.2299
54 H 0.105146 0.515137 -0.0785843
55 O -2.30512 0.559648 0.405077
56 H -0.27161 -0.391804 -0.382441
57 H 2.5938 0.0312631 -0.198859
58 O -0.146731 0.330068 0.0342063
59 H 0.584243 0.264384 0.43206
60 H -0.753495 -0.835823 -0.392417
61 O -1.1968 1.16892 0.688163
62 H 0.269965 -0.395067 -0.570306
63 H 1.08372 -0.494808 -0.083656
64 O 0.67371 0.925726 -0.311938
65 H -1.04791 0.500184 -0.140782
66 H -0.0555279 -1.10456 0.236442
67 O 0.408429 0.701837 -0.163354
68 H -0.314385 0.108781 -0.222981
69 H -0.205355 -0.93979 0.375619
70 O -0.165615 0.0098266 0.669947
71 H -0.120462 -0.259334 -0.539797
72 H 0.159545 0.382869 -0.303404
73 O -1.22001 0.644973 0.852729
74 H 0.498203 -1.0999 -0.0142915
75 H 0.588609 0.393547 -0.997731
76 O 0.146779 1.69973 -1.23171
77 H -0.534849 -1.07024 -0.768848
78 H 0.4103 -0.526274 1.6913
79 O 2.18683 -1.1359 1.03872
80 H -0.573043 0.317538 -0.0897416
81 H -1.11911 0.370991 -0.77616
82 O -0.00375487 1.0528 1.59158
83 H -0.553328 -0.871103 -0.676461
84 H 0.498626 -0.301985 -0.849964
85 O 0.140095 1.00452 -0.675355
86 H 0.100365 -0.232862 0.706693
87 H -0.187031 -0.598274 -0.131319
88 O 0.373401 1.00183 -0.367579
89 H -0.404673 -0.125293 -0.245209
90 H -0.185473 -0.916933 0.503166
91 O -0.87355 -1.01908 0.236922
92 H 0.0787039 -0.218271 -0.319936
93 H 0.487661 1.19157 0.214047
94 O 0.168936 -0.036966 0.232558
95 H -0.327031 0.48618 -0.357513
96 H 0.404765 0.168581 0.107604
97 O 0.771655 0.189108 -0.195298
98 H -0.0395378 -0.154958 -0.319492
99 H -0.634944 -0.174226 0.568655
100 O 0.25333 0.606924 -1.70176
101 H -0.814835 -1.8705 1.41688
102 H 0.395676 1.29915 0.524406
103 O 0.410326 0.547933 1.00506
104 H -0.203214 -0.336034 -1.44108
105 H 0.0381028 -0.0849058 0.262047
106 O -0.749458 -1.30213 0.635123
107 H -0.0333191 -0.680194 -0.680025
108 H 0.653312 1.64242 0.414176
109 O -0.409319 1.92055 -1.86722
110 H 0.456826 -0.238931 1.9538
111 H 0.173556 -0.703069 0.0345787
112 O 1.00341 -1.46168 -1.00784
113 H -0.399021 -0.0167459 0.964024
114 H -0.20939 0.73437 0.67112
115 O 0.0901063 0.268753 0.0539611
116 H -0.0848648 -0.174685 0.221884
117 H 0.0107277 0.15679 -0.170969
118 O 0.403186 1.37889 1.58634
119 H 0.458921 -0.562394 -0.534804
120 H -0.66388 -0.695952 -0.889321
121 O -1.51269 0.61894 0.481293
122 H 1.37569 -0.872406 -0.519083
123 H 0.195783 0.16539 -0.102121
124 O 0.547148 -0.482775 0.805139
125 H -0.0848787 0.227747 -0.311205
126 H -0.599716 -0.0277653 -0.42999
127 O 0.54196 -0.0981661 -0.172829
128 H -0.0228543 -0.220228 0.102616
129 H -0.348592 -0.204351 0.0730646
130 O 0.252553 -2.17279 1.5857
131 H -0.484119 -0.202842 -0.500822
132 H 0.213241 1.99551 -0.967768
133 O 0.143576 -2.62525 1.31561
134 H -0.524822 1.00203 -1.97555
135 H 0.425759 1.40383 0.382234
136 O -0.445007 0.809002 0.438335
137 H 0.0597819 0.00263976 -0.226145
138 H -0.0115569 -0.722573 -0.285246
139 O 0.366894 1.06179 -0.209984
140 H -0.13245 -0.399503 0.114853
141 H -0.0490635 -0.441615 0.1001
142 O -0.223363 -1.29165 -0.743258
143 H 1.47992 1.36588 0.453435
144 H -1.25382 -0.247473 -0.0876083
145 O -1.6953 1.58614 0.447823
146 H 0.689438 -0.0085217 -0.217112
147 H 0.800089 -2.03591 -0.141733
148 O -1.08183 -0.767094 0.657186
149 H 1.21231 0.770124 -0.450957
150 H -0.298432 -0.199442 0.164342
151 O -1.08941 -2.06955 -1.29106
152 H 0.441235 1.604 -0.213377
153 H 0.627391 0.265509 1.20426
154 O 1.08307 -0.566839 -1.29303
155 H -0.239983 0.343766 0.418489
156 H -0.915374 0.485231 0.697259
157 O 0.550466 -0.393474 -0.0772021
158 H -0.913897 0.396777 0.359337
159 H 0.425149 -0.336337 -0.0809391
160 O -0.0809149 0.508269 0.154676
161 H 0.529978 -0.570152 -0.325478
162 H -0.558696 0.264081 0.487919
163 O 1.14431 0.710972 -0.560474
164 H 0.0856072 0.327802 0.115275
165 H -0.888072 -0.807027 0.497698
166 O -1.22694 1.00186 -1.6122
167 H 0.618601 -1.13577 1.01452
168 H 0.885756 0.0439086 0.906135
169 O -2.27908 -1.03741 0.194364
170 H 2.4509 0.416 0.369016
171 H -0.409027 1.01703 -0.99058
172 O -1.39386 0.444712 -0.0607357
173 H 1.44273 -0.610241 -0.496818
174 H -0.207593 0.135628 0.0302166
175 O -0.923677 -0.0418445 1.17165
176 H 0.969013 0.0580124 -1.11964
177 H -0.0274351 0.427751 -0.00666163
178 O 1.18832 1.06234 -0.0740241
179 H -0.328646 -0.099865 -0.184966
180 H -0.522488 -1.11778 0.179933
181 O 0.0132024 -0.902091 -2.43706
182 H 0.738947 0.139573 0.727996
183 H -0.81074 0.866585 1.58717
184 O 0.164476 1.06844 0.186306
185 H -0.387131 -0.462622 0.151666
186 H 0.0400926 -0.471191 -0.089657
187 O 1.2727 0.569763 0.163568
188 H -1.82891 -0.756224 0.651428
189 H 0.378871 0.178751 -0.919091
190 O 0.439189 2.47421 -2.46282
191 H 0.658547 -0.0864606 0.436523
192 H -0.597118 -2.17842 2.14205
193 O -1.36351 0.262257 1.40433
194 H 0.28672 -0.212635 -0.980936
195 H 1.32576 0.1021 -0.583017
196 O -1.35952 -0.248035 -1.97889
197 H 0.46728 -0.120041 0.851016
198 H 1.29083 0.388022 1.17502
199 O -1.13653 1.49791 0.281941
200 H 0.607151 0.781993 -0.41476
201 H 0.383951 -2.07106 0.0254438
202 O -0.338008 0.530078 -0.559368
203 H 0.557178 -0.470787 1.82122
204 H -0.315748 -0.111818 -1.12036
205 O -0.830784 0.394155 -0.040929
206 H 0.743454 -0.686863 -0.845235
207 H -0.0316961 0.325927 1.05813
208 O 0.982151 -0.945356 -2.10597
209 H 0.0403549 1.02205 1.54094
210 H -1.27725 -0.136624 0.362145
211 O -0.57966 -2.9805 -0.903913
212 H 1.4805 2.0359 0.188349
213 H -1.07403 0.736174 0.971997
214 O 0.799538 -0.472516 0.00959921
215 H 0.0258639 0.00195268 -0.0867025
216 H -0.821721 0.0596228 -0.522303
217 O 1.04513 -0.429265 1.32659
218 H 0.34657 0.813229 0.46368
219 H -1.00244 -0.268227 -1.84272
220 O 0.12741 0.455303 -1.08783
221 H -0.352498 -0.371899 0.398979
222 H 0.281499 -0.171012 0.520768
223 O 0.622995 0.280618 1.02651
224 H -0.297147 0.166364 -0.274102
225 H -0.066312 -0.0852944 -0.554136
226 O 0.807761 -2.21682 -1.10942
227 H -0.741643 1.39909 1.27449
228 H -0.152897 0.638206 -0.210859
229 O -1.28152 2.17073 -0.445463
230 H 0.655531 -0.222989 -0.272436
231 H 0.474132 -1.71088 0.668245
232 O -0.0829714 2.23222 -0.29499
233 H 0.891784 -0.864432 -0.0673515
234 H -0.774055 -1.46788 0.242914
235 O 0.247114 -0.70979 -0.452186
236 H -0.138129 -0.146928 0.098941
237 H -0.105462 0.439598 0.260598
238 O -0.439501 0.310962 0.985087
239 H 0.418958 -0.655368 -0.839924
240 H -0.0556772 0.282564 -0.0499079
241 Li 0.196977 0.561072 -0.312606
242 Li -0.157911 0.430851 -0.520167
243 Li -0.106378 0.4058 0.13737
244 Li 0.0245909 -0.462542 -0.0908277
245 Cl -0.186155 -0.0718264 -0.231377
246 Cl 0.118283 -0.73442 0.68149
247 Cl -0.451032 -0.10512 -0.189344
248 Cl -0.008103 -0.103131 0.287441
ITEM: TIMESTEP
1
ITEM: NUMBER OF ATOMS
248
ITEM: BOX BOUNDS pp pp pp
0.0000000000000000e+00 1.3867400000000000e+01
0.0000000000000000e+00 1.3867400000000000e+01
0.0000000000000000e+00 1.3867400000000000e+01
ITEM: ATOMS id element fx fy fz
1 O 0.852277 -0.386921 0.136099
2 H -0.0928343 -0.102309 -0.212989
3 H -0.7202 0.395791 -0.221255
4 O -1.08253 -0.0356488 0.855397
5 H 0.903135 -0.243697 -0.808386
6 H 0.066213 0.463528 0.350003
7 O -0.46174 0.938139 1.18169
8 H -0.0269781 -0.0343146 0.504838
9 H -0.327853 -1.08143 -1.9927
10 O -0.652912 -1.35522 0.316438
11 H -0.368116 0.465592 0.143869
12 H 0.892556 0.805213 -0.028427
13 O -1.05578 -0.256373 0.143095
14 H 0.514203 0.48504 0.458499
15 H 0.79595 -0.47739 -0.77357
16 O 0.429833 -0.624963 0.312848
17 H 0.204405 0.462226 -0.414838
18 H -0.444024 -0.153793 -0.153659
19 O -0.554445 -1.38691 -0.686412
20 H 0.248214 1.25295 0.148908
21 H -0.0792638 -0.0219503 0.365445
22 O 1.06032 0.54741 0.330771
23 H -0.669992 0.630907 -0.35659
24 H -0.660469 -0.700007 -0.65703
25 O 2.18102 -0.35586 -2.4867
26 H -0.0183576 0.841043 1.52475
27 H -2.11521 -0.316728 0.724481
28 O -1.4443 0.655742 0.460874
29 H 0.706104 0.0699991 -0.534185
30 H 0.668107 -0.895546 -0.291719
31 O 0.162574 -0.452474 -1.15594
32 H -0.306297 -0.135105 0.757459
33 H 0.372971 0.0519894 -0.0937418
34 O -0.324878 -0.431923 0.0185651
35 H 0.174443 -0.157179 -0.156399
36 H 0.233753 0.102623 0.524542
37 O -0.318047 0.751003 -0.904837
38 H 0.351569 0.229328 0.854156
39 H -0.165612 -0.911703 0.146642
40 O -0.91814 1.21837 -0.567118
41 H 0.879838 -1.95192 0.282399
42 H 0.101432 0.241859 0.0218158
43 O 0.650135 -0.199161 0.215439
44 H -0.504973 0.0416459 -0.442381
45 H -0.470125 0.152589 0.525089
46 O -1.05822 -1.61707 0.860501
47 H -0.1633 1.35196 0.148846
48 H 0.867386 0.361841 -0.786137
49 O 1.27494 0.448202 -1.91665
50 H -0.272327 -0.658304 0.224691
51 H -1.08386 -0.00447132 1.4143
52 O -0.357874 0.603226 0.615071
53 H 0.572672 -0.482301 -0.722194
54 H 0.33225 -0.0185745 -0.00775972
55 O -0.723812 0.890707 3.64172
56 H 0.907666 0.760014 -1.92553
57 H 0.158227 -1.58231 -1.06082
58 O -1.023 -0.0500744 0.280165
59 H 0.485323 -0.0942618 -0.287628
60 H 0.225871 0.0481037 0.225993
61 O -0.441582 0.321573 0.807222
62 H -0.366078 -1.49781 -0.129112
63 H 0.62128 0.952943 -0.47493
64 O 0.0144916 0.468266 -0.673725
65 H -0.354103 -0.351258 0.293173
66 H 0.146797 0.30114 -0.0618165
67 O -1.02988 -0.359251 0.111493
68 H -0.0329397 0.664549 -0.781364
69 H 0.937451 -0.24105 0.982653
70 O -0.305544 0.329568 -0.282413
71 H 0.326884 -0.128062 -0.473404
72 H 0.345245 -0.285997 0.606501
73 O 0.317184 0.232876 0.854913
74 H -0.364539 0.181145 -0.313322
75 H -0.0762496 -0.404273 -0.523858
76 O -0.400899 -0.406716 0.850569
77 H -0.35989 -0.126593 -0.347563
78 H 0.606669 0.499114 -0.447493
79 O -0.24562 0.270529 -0.909453
80 H 0.394664 -0.208419 0.202089
81 H -0.333144 0.0147524 0.729946
82 O 0.509155 -0.931671 0.357944
83 H 0.314602 0.484407 0.338962
84 H -0.814798 1.14054 0.159089
85 O -1.48239 -0.453741 -0.10505
86 H 0.0385017 0.329065 0.130965
87 H 1.47803 0.121999 0.342787
88 O -1.68659 0.404176 1.22152
89 H 1.28614 0.232454 -0.820313
90 H -0.00918305 -0.268371 -0.610363
91 O 1.22245 0.319713 1.1964
92 H -0.279906 0.143256 0.393668
93 H -0.987093 -0.709023 -1.71683
94 O -1.05333 0.455064 -1.92947
95 H 0.546459 0.775467 1.23842
96 H 0.525121 -1.03481 0.271422
97 O -0.1069 -0.970476 1.11475
98 H -0.240195 0.425843 -0.37623
99 H 0.402756 0.653869 -0.772742
100 O 1.13742 -1.34902 -1.71197
101 H -0.113521 1.07434 -0.37417
102 H -0.893321 0.882023 1.80054
103 O 2.34109 1.155 0.306916
104 H -1.5538 -0.510944 -1.0831
105 H -0.955097 -0.668803 0.944396
106 O -0.0801644 -0.671589 1.7396
107 H 0.110192 0.899015 -0.977321
108 H 0.362757 -0.00985687 -1.28963
109 O 0.449598 -0.152791 0.305191
110 H -0.195383 -0.247176 0.0439951
111 H -0.383272 0.363899 -0.199162
112 O 0.942201 0.948611 0.0430852
113 H -0.911969 -0.689706 0.477933
114 H 0.186128 -0.378738 0.103037
115 O -1.53891 0.358152 -1.08965
116 H 1.16223 -0.458064 0.881899
117 H 0.337743 0.536338 -0.101673
118 O 1.59379 -1.06099 -0.90444
119 H -0.293594 0.455983 0.035167
120 H -0.946165 0.568781 0.863053
121 O 0.382161 -0.844841 0.730683
122 H -0.213486 0.615593 0.0357334
123 H -0.184018 0.169624 -0.253126
124 O -1.44437 1.45406 -0.316153
125 H -0.404756 -0.728595 1.25076
126 H 1.78312 -0.904746 -0.708263
127 O -0.616623 1.00865 -0.908274
128 H -0.234472 -0.833612 0.868456
129 H 0.406477 -0.0399659 -0.0948732
130 O -0.280291 -0.0743219 0.482471
131 H 0.237359 -0.102749 0.271517
132 H -0.0212336 0.207218 -0.753474
133 O 0.105142 -0.947366 0.90045
134 H 0.46073 0.157167 -0.126526
135 H -0.55946 0.593012 -0.343228
136 O -0.303245 -2.03497 -1.10027
137 H 0.356896 0.84913 -0.140073
138 H -0.530625 1.36061 1.29632
139 O 1.19641 0.110552 0.611284
140 H -0.83209 -0.5154 -0.630138
141 H -0.156401 -0.0194424 0.0623272
142 O -0.752734 -0.781799 0.410436
143 H 0.731914 0.586561 -0.375726
144 H -0.129372 -0.169484 -0.0162393
145 O -0.0195802 0.924373 -0.748419
146 H -0.0214641 -0.33684 0.0985108
147 H 0.0685201 -0.437908 0.531189
148 O 0.147297 -2.57686 -2.18186
149 H 1.32816 1.68506 1.29008
150 H -1.56543 0.824179 0.668242
151 O -0.139469 -0.840524 -0.811611
152 H 0.566629 0.258476 0.839441
153 H -0.584921 0.318447 0.369052
154 O -0.440415 -0.220402 0.0240415
155 H 0.2474 0.582407 -0.159511
156 H 0.558437 -0.275449 0.250925
157 O -0.112121 2.80533 1.94476
158 H 0.579913 -0.450562 -1.022
159 H -0.140468 -2.51033 -0.822705
160 O -0.710381 0.591884 -0.85175
161 H 0.454116 -0.227874 1.0171
162 H 0.200872 -0.803365 -0.699112
163 O 0.407741 0.703107 0.363327
164 H -0.155158 -0.21522 -0.261808
165 H 0.225343 -0.572593 -0.211621
166 O -0.415182 0.287382 -0.113999
167 H 0.100446 -0.126866 -0.320822
168 H 0.464852 0.0264613 0.423873
169 O -0.587669 0.534352 -1.44246
170 H 0.895478 0.242952 0.886152
171 H 0.0230673 -0.335597 0.731132
172 O 0.171678 -1.05486 1.2201
173 H 0.232472 0.101687 -0.937966
174 H -0.389043 0.709923 -0.173367
175 O 0.284296 -1.11693 -0.0414512
176 H 0.530149 -0.567933 0.238813
177 H -0.663205 1.44096 -0.312949
178 O 0.134204 0.672288 0.765912
179 H -0.595017 -0.524443 -1.00463
180 H 0.297561 -0.196391 0.389538
181 O 1.16909 0.0344032 1.08196
182 H 0.112786 -0.348155 -0.696923
183 H -0.80444 0.00608969 -0.448414
184 O 0.305435 2.30902 2.92232
185 H -1.84645 -1.46654 -1.59396
186 H 1.37167 -1.05057 -1.23091
187 O 0.209244 -2.06859 0.354738
188 H -0.387646 0.903171 0.478615
189 H -0.0883273 0.705704 -1.01395
190 O -0.458735 -0.637683 -0.139488
191 H 0.624011 0.0531366 0.461567
192 H -0.387181 0.601875 -0.179436
193 O 0.382823 2.25559 -1.95914
194 H -0.355363 -0.0997711 1.6305
195 H -0.0997663 -2.31996 0.499385
196 O -0.0684995 -1.05619 0.591206
197 H 0.295178 0.625086 -0.330046
198 H -0.357604 0.795957 -0.439824
199 O 0.469352 -0.0331517 0.405735
200 H -0.765233 -0.126129 -0.517896
201 H 0.2109 0.0379995 0.280759
202 O -0.162046 0.8437 -2.59957
203 H 0.0710335 0.255293 -0.0811418
204 H 0.153684 -0.958826 1.993
205 O -1.06312 -0.557989 -0.482581
206 H 1.01295 0.739367 0.616837
207 H -0.0592401 0.489915 -0.228201
208 O 2.085 -0.141228 -0.301235
209 H -1.0272 -0.360524 -0.265328
210 H -0.720144 0.219943 0.202091
211 O -0.354852 -0.0565784 -0.294566
212 H -0.0762043 0.0870933 0.729389
213 H 0.596926 0.152248 -0.0646131
214 O 1.39119 0.504858 -0.197033
215 H -0.749547 -0.229225 -0.249036
216 H -0.202128 -0.379531 0.260839
217 O 0.374314 0.315938 0.431951
218 H 0.0905825 -0.1807 -0.0425384
219 H -0.398357 -0.133459 -0.488656
220 O 0.629316 -1.95699 -1.00276
221 H 0.0823234 1.53192 0.26047
222 H -1.02207 0.536042 0.938984
223 O 0.983456 1.55498 -0.413205
224 H -0.14097 -0.628614 -0.0262455
225 H -0.567573 -0.864616 0.42555
226 O 0.371857 -0.240299 -0.328411
227 H -0.0580075 -0.0422803 0.0955814
228 H -0.201738 0.574374 0.62767
229 O -1.55265 -1.55607 -1.93654
230 H 0.0696237 0.618643 0.342294
231 H 1.38089 0.830234 1.0639
232 O -1.28793 -2.17113 -0.337278
233 H 1.58209 2.04672 0.599698
234 H -0.222472 -0.125298 -0.185661
235 O -0.114116 0.577822 0.223241
236 H -0.142248 0.32928 -0.0957555
237 H 0.38502 -0.604119 0.089791
238 O -2.70038 -0.170338 1.65039
239 H 1.3021 -0.907788 -0.278941
240 H 1.1744 1.50835 -1.61531
241 Li -0.0406407 0.0388956 -0.0430286
242 Li 0.345116 0.233578 0.235602
243 Li 0.366075 -0.174928 -0.0160082
244 Li -0.538217 0.186191 -0.171195
245 Cl -0.0890641 0.251275 -0.0315374
246 Cl -0.0374906 0.0624796 -0.201391
247 Cl 0.534284 0.00179318 0.329087
248 Cl 0.00988635 -0.0852982 0.277847
ITEM: TIMESTEP
2
ITEM: NUMBER OF ATOMS
248
ITEM: BOX BOUNDS pp pp pp
0.0000000000000000e+00 1.3867400000000000e+01
0.0000000000000000e+00 1.3867400000000000e+01
0.0000000000000000e+00 1.3867400000000000e+01
ITEM: ATOMS id element fx fy fz
1 O 0.258591 -1.03719 1.26213
2 H 1.43603 0.373339 0.00626885
3 H -1.92626 0.968446 -1.61842
4 O 0.697346 -0.0655233 -0.556671
5 H -0.839274 0.229755 0.345514
6 H -0.107848 -0.0413728 0.130231
7 O -2.03011 0.61747 2.66253
8 H 0.824452 0.990865 -1.16191
9 H 0.477638 -1.58727 -1.49831
10 O -0.174616 -0.952714 0.0242533
11 H -0.101787 0.512779 0.0184631
12 H 0.170759 0.574869 -0.0231272
13 O 0.259409 0.0664533 -0.760042
14 H -0.395356 0.429319 0.51846
15 H 0.215329 -0.39088 0.368343
16 O -0.0921517 -1.69219 0.276659
17 H 0.112724 0.687366 -0.785691
18 H 0.249653 0.81449 0.0940546
19 O 0.340433 0.183913 0.187752
20 H -0.0445734 -0.0776492 -0.130367
21 H -0.288636 -0.035931 -0.0902329
22 O -0.33451 -1.13752 -0.783006
23 H -0.101934 0.533625 0.14523
24 H 0.352624 0.548965 0.831264
25 O -0.242015 -0.664484 0.357796
26 H -0.0550042 -0.00688763 -0.351509
27 H 0.372689 0.595925 -0.281518
28 O 0.00389944 0.333643 -0.328657
29 H -0.241497 -0.334993 0.238681
30 H 0.12369 0.186161 0.115815
31 O 1.09668 -1.80452 0.376829
32 H 0.103978 -0.0363712 -0.230756
33 H -0.889346 1.57036 -0.242624
34 O 0.373186 -2.11496 -0.150371
35 H -1.16297 1.00611 -0.687038
36 H 1.41989 1.22289 0.862744
37 O 1.81859 0.695757 -0.611083
38 H -1.65503 -0.690733 0.810168
39 H -0.256032 -0.0431966 -0.144133
40 O -0.0248139 0.963697 -0.60083
41 H -0.052371 -0.0353523 0.768638
42 H -0.0917781 -1.34646 0.424111
43 O -0.328931 -0.26057 1.06053
44 H 0.203018 -0.925414 -0.769773
45 H 0.406125 1.32472 -0.364982
46 O 1.59222 -0.978727 0.795036
47 H 0.19411 0.290523 -0.326231
48 H -1.93128 1.0354 -0.656652
49 O -1.07016 -1.19268 2.66105
50 H 1.23062 0.116019 -0.795345
51 H -0.312306 1.00882 -2.06215
52 O 0.0117039 0.47407 0.446053
53 H 0.112915 0.105622 -0.543804
54 H -0.0598296 -0.79295 -0.0519207
55 O -1.00087 -0.410624 1.27736
56 H 1.44293 0.365523 -0.561597
57 H -0.510959 0.0238295 -0.0296515
58 O -0.0275382 -1.18254 -1.08866
59 H 0.255876 0.779643 1.01962
60 H -0.197223 0.405171 -0.0079673
61 O -0.157127 -0.124944 1.08633
62 H -0.456349 -0.138581 -0.790927
63 H 0.806559 0.313 -0.0400858
64 O -0.303892 0.398014 0.468303
65 H 0.0215581 -0.332283 -0.169454
66 H 0.371529 -0.0238163 -0.537029
67 O -0.878357 -0.142008 -0.738632
68 H -0.324276 0.229358 0.193547
69 H 0.698903 -0.00290465 0.801445
70 O -0.426522 0.752662 -0.21158
71 H 0.202121 -0.452762 0.0101865
72 H 0.173147 -0.145858 0.157803
73 O -0.384078 -0.152506 -0.64834
74 H 0.314606 0.116999 0.742127
75 H 0.345417 0.220014 0.0328841
76 O -0.698933 -0.222307 -0.918629
77 H 0.443666 -0.226163 0.554504
78 H 0.0927174 0.137998 0.0362152
79 O 1.44376 -1.84901 1.40427
80 H -0.459644 0.0756661 -0.437405
81 H -0.948271 2.02252 -1.11231
82 O -1.06811 0.7868 0.393048
83 H 0.429428 -0.824402 -0.492259
84 H 0.613 -0.0173767 0.0870286
85 O 0.86622 -0.637493 -0.289407
86 H -0.0561203 -0.0745841 0.00995925
87 H -0.909774 1.04263 0.828117
88 O -0.110278 1.00239 0.749142
89 H 0.143399 0.362213 -0.25966
90 H -0.135383 -1.45627 -0.704754
91 O -0.81133 -0.743701 1.62289
92 H -0.239983 -0.748684 -0.140489
93 H 0.861263 1.17891 -1.73277
94 O -0.201625 0.076833 -0.0404201
95 H -0.146097 0.444276 0.00345885
96 H 0.0378443 -0.147651 -0.388485
97 O -0.404442 -0.698691 -0.903033
98 H -0.230937 -0.169881 -0.207676
99 H 0.513494 0.840898 1.19287
100 O -0.151962 -0.148256 0.342243
101 H 0.243496 1.03879 0.0183848
102 H -0.216543 -0.509147 -0.292053
103 O -0.900638 -0.195055 1.46507
104 H 0.842372 0.0541877 -0.279717
105 H 0.252189 0.258149 -1.21675
106 O 2.12485 0.0232749 1.11396
107 H -0.46767 0.106697 -1.19027
108 H -1.88886 -0.181714 0.320722
109 O 0.8433 -1.81105 -0.146268
110 H -0.723699 0.337955 -0.541026
111 H -0.338444 1.36496 0.496916
112 O 2.04273 -0.597774 0.806054
113 H -0.292123 0.0285438 -0.088961
114 H -1.55077 0.582314 -0.600762
115 O -0.502387 0.429305 0.427992
116 H 1.0514 0.0384049 -0.350343
117 H -0.397618 -0.238172 0.325417
118 O 0.465001 -0.429635 0.175457
119 H 0.648861 0.380092 -0.736628
120 H -0.710171 0.346294 0.768763
121 O 1.03052 -1.51136 -0.613307
122 H -1.17582 -0.127987 0.594956
123 H -0.0124635 1.44358 0.11999
124 O 0.0118371 -1.38711 -0.0104993
125 H -0.683712 0.888795 0.682071
126 H 0.567725 0.398192 -0.575636
127 O -0.0588936 0.0576789 0.0748044
128 H 0.208195 -0.54074 -0.946284
129 H 0.210315 0.519499 0.815961
130 O 1.00961 -0.376979 1.77886
131 H -0.77284 0.0535137 -1.75931
132 H -0.0915596 0.676337 0.171913
133 O -0.151787 1.07123 -1.04989
134 H 0.292732 -0.881355 1.12988
135 H -0.241047 0.187946 0.0976672
136 O 0.152033 -0.76113 -0.814515
137 H 0.286407 0.278977 0.813793
138 H -0.313725 0.647425 0.177457
139 O 1.2438 -0.114157 0.301854
140 H -0.733569 -0.174909 -0.478836
141 H 0.0390098 0.350527 0.463975
142 O -1.59524 0.444226 1.10131
143 H 0.292263 -0.20485 -0.116484
144 H 1.11968 -0.193446 -0.798304
145 O -0.0539433 0.635922 0.77571
146 H -0.297695 0.538712 0.682773
147 H 0.214683 -0.941227 -1.09787
148 O -0.575089 -1.26812 -0.417155
149 H 0.236661 0.208714 -0.085582
150 H 0.62548 0.524536 0.158527
151 O 0.527165 -0.511269 1.12072
152 H -0.597346 0.735379 -1.06635
153 H -0.0449647 -0.345779 -0.125279
154 O -0.0816118 1.03546 -0.0443793
155 H 0.168335 -0.33942 0.534408
156 H 0.0975716 -0.677732 -0.603051
157 O -0.576691 0.23046 -1.73621
158 H 0.442814 -0.810374 0.757871
159 H -0.193358 0.555084 0.96491
160 O 1.19324 -0.0885611 1.40314
161 H -0.521528 0.257113 -2.09775
162 H -0.674904 -0.409382 1.00871
163 O 0.68565 -1.13357 1.48874
164 H 0.282155 1.26269 -0.485765
165 H -0.510302 -0.438904 -1.22235
166 O 0.0609751 -0.530092 0.578253
167 H -0.376545 0.405626 -0.0241192
168 H 0.207585 0.00511742 -0.183727
169 O 1.0829 0.176018 -0.1874
170 H -0.968024 -0.305612 -0.722155
171 H -0.483413 -0.0188768 0.56153
172 O -2.03231 0.885261 1.09449
173 H 0.823976 -0.355185 -0.443318
174 H 1.22671 -0.806828 -0.66533
175 O -0.584038 0.0826632 0.599139
176 H 0.354171 -0.0795058 -0.603338
177 H 0.0611199 0.0196371 -0.0697148
178 O 0.136366 -0.842997 0.409045
179 H -0.290891 0.430679 0.031755
180 H 0.144099 0.207003 -0.773742
181 O -0.071247 0.503087 -0.457923
182 H 0.519468 -0.685467 0.327223
183 H -0.140647 -0.179965 0.20612
184 O 2.55446 -0.835581 -0.79221
185 H -1.35208 -0.478498 -0.827525
186 H -1.33575 0.913502 1.05097
187 O -1.19522 -1.22082 0.643126
188 H 0.319488 1.08582 -0.222314
189 H 0.956147 -0.114179 -0.191164
190 O 0.364402 -1.39816 -0.63525
191 H -0.72884 0.5561 0.0341204
192 H 0.385098 0.635827 0.616258
193 O -1.29952 -0.436726 1.45249
194 H 0.579576 -0.452544 -0.247227
195 H 0.507212 1.02643 -0.998137
196 O -0.504664 -0.222547 -1.56506
197 H 0.970672 0.515283 0.969369
198 H -0.644445 -0.320124 0.580356
199 O 1.17502 -1.22128 0.15628
200 H -0.0526809 0.343686 -0.433023
201 H -1.33823 0.905204 -0.161172
202 O 0.12759 -1.13673 1.25362
203 H 0.233403 -0.560121 -2.08082
204 H -0.102343 1.41849 0.936065
205 O 0.724593 0.830455 0.906646
206 H -1.37544 -0.414003 -0.7244
207 H 0.473183 -0.119621 0.096578
208 O 0.80597 1.19533 1.4272
209 H 0.395791 -0.950632 -0.738257
210 H -0.809605 -0.126531 -0.700944
211 O 0.836264 -1.05139 -0.282129
212 H 0.187344 -0.223755 -0.177519
213 H -0.926971 1.36793 0.560971
214 O -1.41021 -1.82568 -1.14363
215 H 1.52454 1.07249 -0.0894377
216 H -0.0777804 0.776282 1.11782
217 O -1.41941 1.15053 -1.08164
218 H -0.0969408 0.150272 -1.10658
219 H 1.65636 -1.0531 1.9063
220 O -2.11014 -0.524656 0.0016305
221 H 1.09443 -0.132963 0.473464
222 H 0.893362 0.481895 -0.176149
223 O -0.100773 -0.431102 -0.564881
224 H 0.46031 0.320522 0.331664
225 H -0.485685 0.371086 0.341597
226 O -0.164809 -0.278723 -1.5093
227 H 0.706627 0.278798 0.849079
228 H -0.425052 0.190396 0.450078
229 O 0.155297 0.602344 1.28178
230 H 0.260083 -0.409539 -0.511205
231 H 0.151301 0.107825 -0.777287
232 O 0.0922657 0.450455 0.716594
233 H -0.0515089 -0.129859 -0.430763
234 H -0.392742 -0.36587 -0.520094
235 O -1.20308 -0.0980485 -0.660968
236 H 1.54299 -0.12928 0.283883
237 H -0.198861 0.164294 0.390054
238 O 1.03821 -0.810573 0.436234
239 H -0.647967 0.079445 -0.373233
240 H -0.470195 0.674143 -0.0426118
241 Li -0.137001 -0.428284 -0.0778158
242 Li 0.651761 -0.238735 0.25978
243 Li -0.140603 0.513006 0.180617
244 Li 0.171081 -0.0557119 -0.176466
245 Cl -0.275035 0.00868873 -0.0869006
246 Cl 0.478876 -0.13459 -0.0437884
247 Cl -0.01077 -0.115697 -0.242328
248 Cl -0.649919 -0.158361 -0.283939
ITEM: TIMESTEP
3
ITEM: NUMBER OF ATOMS
248
ITEM: BOX BOUNDS pp pp pp
0.0000000000000000e+00 1.3867400000000000e+01
0.0000000000000000e+00 1.3867400000000000e+01
0.0000000000000000e+00 1.3867400000000000e+01
ITEM: ATOMS id element fx fy fz
1 O -0.0442325 -0.00268417 -0.0660117
2 H -0.0377147 0.229404 0.341178
3 H 0.0248776 0.0222299 -0.0422369
4 O -2.14267 -0.195378 0.256453
5 H 1.26211 0.326699 -0.0503519
6 H 0.362773 -0.691615 -0.0866368
7 O -0.0212814 -2.04715 -2.23475
8 H -0.147154 2.43665 2.09353
9 H -0.326079 -0.296123 -0.141778
10 O 0.0172044 0.584426 1.07213
11 H -0.0903861 -0.245157 -0.304876
12 H 0.218949 -0.356424 -0.927359
13 O 0.247492 -0.576271 -1.11361
14 H -0.615016 0.394611 0.74624
15 H 0.144645 -0.383418 -0.161317
16 O -0.328723 0.727699 0.319697
17 H 0.218642 -0.581976 -0.48694
18 H -0.126657 -0.208558 -0.152788
19 O -0.952427 1.41438 -2.40423
20 H 0.520448 -0.924933 1.87348
21 H 0.67138 -0.0383949 0.407257
22 O 0.505447 -0.216907 -0.262515
23 H 0.528922 -0.236162 0.956871
24 H -1.09119 0.569918 -0.147176
25 O -0.34956 -1.08913 -0.465087
26 H -0.129253 0.502687 -0.118404
27 H 0.276134 0.570029 0.485068
28 O 0.098905 0.432482 -0.00437693
29 H -0.408966 0.0962418 -0.307088
30 H 0.299423 -0.520754 0.157528
31 O -0.208985 -0.757886 0.29884
32 H 0.481796 0.859717 -0.572226
33 H -0.121787 0.190159 -0.0914064
34 O -0.994256 -0.918053 -0.842042
35 H 0.323377 1.11702 0.164217
36 H 0.90718 -0.171628 0.331747
37 O -0.212882 0.788658 -1.57511
38 H -0.25865 -0.481491 0.864576
39 H 0.326453 -0.213658 0.473104
40 O 0.740775 0.880525 0.267017
41 H -0.126116 -0.643384 0.272385
42 H -0.33467 -0.529411 -0.130838
43 O -1.01873 0.209649 2.07818
44 H 0.773395 0.676462 -0.760582
45 H -0.12936 -0.7482 -1.1651
46 O -0.821939 -0.922592 -1.80545
47 H -0.261779 0.775625 0.271464
48 H 0.819954 0.230261 0.788012
49 O -2.30752 -0.27954 -0.432078
50 H -0.150977 0.0105033 -0.00370962
51 H 1.85225 0.42737 0.683192
52 O 0.151746 0.433976 0.488323
53 H -0.523836 -0.137953 -0.123847
54 H 0.357567 -0.0441132 -0.373897
55 O 1.81093 1.16978 0.949629
56 H -0.891789 0.188465 0.0982659
57 H -0.478432 -1.37747 -0.775442
58 O 1.07176 -0.0786732 -0.0805575
59 H -0.295212 0.166917 -0.656132
60 H -0.882118 0.182052 1.03152
61 O -0.596247 -1.44767 0.235887
62 H -0.155032 -0.0128688 0.00301254
63 H 0.514003 1.03568 -0.0469376
64 O -1.1702 -0.523893 -0.0355664
65 H 1.29112 0.426895 0.393076
66 H -0.476727 -0.174569 -0.308637
67 O 0.533874 -1.12294 0.851319
68 H -0.0237696 0.00981107 0.0577983
69 H -0.140489 1.18879 -1.03905
70 O -0.375566 -0.00304726 0.1183
71 H 0.247364 -0.311982 -0.338656
72 H 0.384149 0.538557 0.0764502
73 O 0.212589 -0.439142 -0.165785
74 H -0.230869 0.256617 0.264407
75 H 0.009807 0.168765 -0.25739
76 O 0.67221 0.905766 -0.0386456
77 H -0.866283 -1.27403 0.665076
78 H -0.042154 0.5778 -0.541756
79 O 0.328784 -1.19385 0.533793
80 H -0.0531275 1.04669 -0.380491
81 H -0.334579 0.408467 -0.143528
82 O 1.32035 2.69711 -0.991509
83 H -1.24178 -2.47592 1.00815
84 H -0.130825 -0.0377926 -0.244227
85 O -0.0418828 -1.38547 0.183961
86 H 0.377615 0.828544 -0.262244
87 H -0.355226 0.316872 -0.123618
88 O -0.528645 1.71508 -1.77453
89 H 1.06806 -1.8318 0.892118
90 H -0.586779 0.202164 0.672711
91 O 3.00038 1.96956 0.871936
92 H -0.255959 -0.278665 -0.867409
93 H -2.7351 -1.6733 -0.00179769
94 O 0.656906 -1.96939 -0.00619254
95 H -0.06606 0.26655 -0.433882
96 H -0.412957 1.7981 0.668085
97 O 0.644088 -0.455561 -0.256349
98 H -0.319566 0.223559 0.191976
99 H -0.226913 0.553152 0.10239
100 O -0.382571 0.692326 0.137348
101 H 0.0923483 -0.494937 0.0543321
102 H 0.202304 0.0194354 -0.487094
103 O 1.31894 -2.08743 -1.15703
104 H -1.49958 2.20439 0.638503
105 H 0.182709 0.203619 0.735638
106 O -0.00836455 0.250019 -0.413833
107 H 0.0360986 -0.77511 0.620616
108 H -0.0586694 0.45729 -0.202232
109 O -1.68751 -1.37325 0.529948
110 H -1.11766 0.140755 0.0657108
111 H 2.81765 0.966158 -0.514886
112 O -0.393185 0.639226 -1.17429
113 H 0.48915 -0.572222 1.07919
114 H -0.175321 0.264673 0.909201
115 O -1.02547 -1.26151 -0.593354
116 H 0.867986 0.677235 0.51302
117 H 0.159544 0.633492 0.352779
118 O 0.727004 0.207993 -1.76961
119 H -0.231306 0.366411 -0.446786
120 H -0.791427 -0.599321 2.23073
121 O -0.112803 -2.26832 0.403303