ITEM: TIMESTEP
0
ITEM: NUMBER OF ATOMS
248
ITEM: BOX BOUNDS pp pp pp
0.0000000000000000e+00 1.3867400000000000e+01
0.0000000000000000e+00 1.3867400000000000e+01
0.0000000000000000e+00 1.3867400000000000e+01
ITEM: ATOMS id element fx fy fz
1 O -0.807002 -0.38279 -0.719264
2 H -0.124579 0.493949 0.0887123
3 H 0.540473 0.197213 0.459613
4 O -0.402378 0.169369 0.260322
5 H 0.454614 0.285425 0.232117
6 H -0.276081 -0.274502 -0.683991
7 O -1.60913 -0.188848 0.563664
8 H 1.51684 0.337533 -0.242632
9 H 0.0806925 -0.298276 -0.134164
10 O -1.6099 -1.42331 -0.819563
11 H 0.693638 0.13499 0.26504
12 H 0.864299 1.22023 0.383978
13 O -1.35521 -1.63057 -0.50803
14 H 0.471995 1.32647 0.815384
15 H 1.04399 0.320362 -0.562547
16 O 0.591795 0.0476999 -0.953411
17 H 0.125404 0.424901 0.99218
18 H -0.601085 -0.437326 0.0868379
19 O 1.50378 -0.875437 -0.356448
20 H -0.389256 1.22596 0.369996
21 H -0.875491 0.151764 0.282883
22 O -0.0109061 -0.816412 -0.781902
23 H 0.276419 0.404659 0.646599
24 H -0.0283738 -0.0698964 -0.241272
25 O 0.469773 -0.213672 -0.146624
26 H -0.822708 0.280186 0.750607
27 H 0.169043 -0.111611 -0.336902
28 O 0.594982 -1.06481 -0.19285
29 H -0.509147 -0.23171 0.112979
30 H -0.17452 0.953581 -0.0481563
31 O 0.727774 0.99456 -0.583838
32 H 0.390557 -0.453371 0.69089
33 H -0.878398 -0.323332 -0.213955
34 O -0.287903 -0.171688 1.3797
35 H 0.272985 -0.12253 -1.17128
36 H 0.0581886 0.392597 -0.357901
37 O 1.44709 1.36638 -0.762737
38 H 0.209376 -0.112818 0.135591
39 H -1.62265 -1.13385 0.534476
40 O 1.05663 1.78118 -1.83698
41 H -0.381219 -0.228004 0.421473
42 H -1.07627 -1.77035 1.41924
43 O 1.50509 -0.142025 -0.484647
44 H 0.27603 -0.547716 0.565417
45 H -1.82936 0.67529 0.097324
46 O 0.230447 0.220299 -0.0218997
47 H 0.176355 -0.373985 0.0961774
48 H -0.680101 0.0927183 0.0326161
49 O -0.114133 0.336675 0.0198003
50 H -0.205841 -0.147408 0.462133
51 H 0.377537 -0.0899975 -0.344011
52 O 0.476014 -0.273483 -0.192655
53 H -0.0519473 0.504913 0.398124
54 H -0.44364 -0.756142 -0.293714
55 O -0.152492 -0.753225 0.0981449
56 H -0.143769 0.400212 0.210618
57 H 0.225477 0.501994 -0.345176
58 O 0.276225 0.17959 -0.671718
59 H 0.233395 -0.633042 -0.145551
60 H -0.363951 -0.100882 0.859002
61 O 0.353414 -0.292184 -1.27122
62 H 0.0827575 0.171025 0.193616
63 H -0.216972 0.27838 0.568768
64 O 0.238573 -0.720793 0.490713
65 H 0.180642 0.513393 -0.170364
66 H -0.566502 0.266579 -0.255497
67 O -0.879218 -1.02721 0.210477
68 H 0.532356 0.175031 -0.0705735
69 H 0.0131582 0.62563 -0.273903
70 O 0.170293 0.823109 0.0237197
71 H -0.14431 -0.664704 -0.196399
72 H -0.0745846 -0.329534 0.353049
73 O 0.97652 -0.552126 -1.78155
74 H 0.0815975 0.348637 0.859919
75 H -0.809884 0.0959458 0.574877
76 O 1.63422 -0.0222231 -0.0870139
77 H -0.408485 -0.496847 0.406741
78 H -0.725152 0.0136198 -0.32075
79 O -0.926871 -0.297994 0.135099
80 H 0.760716 0.321954 -0.162728
81 H -0.0499543 -0.287947 -0.187581
82 O 1.13079 1.67024 0.408853
83 H -0.817453 -0.536153 -0.543875
84 H -0.413655 -0.940756 -0.0706287
85 O 0.291523 0.412499 0.265042
86 H -0.211116 -0.132678 0.0660859
87 H -0.118426 0.0840719 -0.097492
88 O 0.979425 0.130953 -0.389633
89 H -0.493298 -0.199473 -0.389616
90 H -0.127278 -0.0256055 0.639507
91 O -0.650052 0.281221 -0.898068
92 H 0.689224 0.103158 -0.236052
93 H -0.268858 0.218609 0.613451
94 O -0.551311 -0.467229 0.515857
95 H -0.312642 -0.20929 0.189381
96 H 0.376534 0.483605 0.0179849
97 O -1.88918 -1.87361 -0.079264
98 H 0.786316 -0.165205 0.254993
99 H 1.12804 2.42838 -0.236535
100 O -0.0499881 0.75656 0.281266
101 H -0.101482 -0.650082 -0.119832
102 H 0.030566 -0.142079 -0.285344
103 O 0.664829 -0.389062 0.675581
104 H 0.0135599 0.457217 -0.388995
105 H -0.718638 0.499366 -0.283823
106 O 0.410192 1.29088 0.391695
107 H 0.202619 -0.542411 -0.382386
108 H -0.596793 -0.357167 0.114899
109 O 0.400276 1.5329 -0.874993
110 H -0.621573 -0.439075 -0.34708
111 H 0.2502 -0.860359 1.11147
112 O -2.8184 0.117154 0.800341
113 H 3.20845 0.511551 -0.292849
114 H -0.67029 -0.550648 -0.391685
115 O 1.24874 1.31898 0.297542
116 H -0.523842 -0.18116 -0.479232
117 H -0.708301 -0.997595 0.410694
118 O -0.0526741 0.489042 0.438943
119 H 0.374066 -0.544845 -0.637049
120 H -0.490623 -0.24938 0.0864085
121 O -0.701787 1.5028 0.00287769
122 H 0.916201 -1.52661 0.450651
123 H -0.187696 -0.0744712 -0.343936
124 O 1.74422 -0.900429 -1.00265
125 H 0.191349 0.459723 -0.572686
126 H -1.9002 0.425429 1.6876
127 O -0.580201 -0.52219 0.802302
128 H 0.435388 0.617763 -0.662791
129 H 0.309234 0.338206 -0.236098
130 O 0.228814 -0.0709001 0.70187
131 H 0.0972482 -0.217502 0.290372
132 H -0.374048 0.802028 -1.09198
133 O 1.60964 0.229641 0.4003
134 H -0.298667 -0.134339 0.0735446
135 H -1.05248 -0.143814 -0.317253
136 O -0.0142256 0.0797094 -1.40062
137 H 0.134716 -0.546183 1.43149
138 H 0.120729 0.398805 0.073189
139 O 0.347385 -0.0659866 -0.203111
140 H -0.314145 -0.282329 0.139336
141 H 0.0109225 0.0817216 -0.0404362
142 O 1.18439 -0.501733 -1.99826
143 H 0.217591 0.461915 0.19877
144 H -1.17582 0.0727333 2.09887
145 O -0.594899 -0.121651 1.37194
146 H 1.24677 -0.619162 -1.66501
147 H -0.767648 0.477517 -0.0897395
148 O -0.5473 1.02834 0.226824
149 H -0.0494535 0.397111 -0.176973
150 H 0.993941 -1.37298 -0.164578
151 O 0.330646 -1.37285 -2.46275
152 H 0.378953 -0.527314 1.54091
153 H -0.506387 1.49577 0.684329
154 O -1.0034 0.0499613 -0.461212
155 H -0.115711 1.49333 -0.231623
156 H 0.898559 -1.15208 0.564351
157 O -0.210067 -0.711291 0.586089
158 H 0.344206 0.48429 -0.393821
159 H -0.067796 0.196944 -0.20024
160 O -0.822307 0.475356 1.29733
161 H 0.249478 -0.199601 -1.42774
162 H 0.785468 -0.297696 0.167032
163 O 0.688006 -0.508567 0.394093
164 H -0.705625 -0.601786 0.20332
165 H 0.214346 0.795358 -0.050301
166 O 0.345695 -0.404792 0.109982
167 H -0.271798 -0.0721912 -0.0136989
168 H -0.168839 0.499796 -0.0364987
169 O -0.0398711 -0.279755 -0.240579
170 H 0.167457 -0.117554 0.289312
171 H -0.0831558 0.643597 0.109628
172 O 0.294575 0.124177 1.25918
173 H -0.781054 0.0815023 -0.670677
174 H 0.0687862 -0.0894594 -0.271835
175 O -1.77076 1.52212 -1.6166
176 H 0.626807 0.44278 0.0644123
177 H 0.763707 -2.05625 1.57604
178 O -0.306101 -1.28913 -0.677692
179 H 0.775191 1.08374 0.942635
180 H -0.374699 -0.380878 -0.202866
181 O -0.0847159 0.148802 -0.660014
182 H -0.290861 -0.0362987 -0.409251
183 H 0.582621 0.01129 0.997755
184 O 1.23172 -0.0162373 -1.76796
185 H -0.760559 -0.550913 0.503417
186 H -0.546971 0.384078 1.09297
187 O -0.643375 -1.69799 1.62787
188 H 0.213542 -0.283762 -0.230368
189 H 0.692363 1.59062 -1.0553
190 O 0.021466 0.177838 0.658082
191 H 0.0562147 -0.213985 0.0684012
192 H -0.0365625 -0.110695 -0.620416
193 O -0.655859 1.47973 0.853685
194 H -0.0968313 -0.779082 -0.861118
195 H 0.357343 -0.616734 0.309231
196 O 0.514618 2.15536 -0.181386
197 H -0.676085 -0.715156 -0.0773403
198 H 0.375635 -1.53992 0.0835257
199 O -0.252917 -0.48972 0.798602
200 H -0.320362 0.772241 -0.727254
201 H 0.55908 -0.150882 -0.029234
202 O -0.221044 0.676766 0.245951
203 H 0.0539661 -0.530286 -0.115897
204 H 0.206975 -0.327167 -0.0708009
205 O -1.98897 0.410452 -0.886182
206 H 1.479 0.0729018 0.433072
207 H 0.577732 -0.642222 0.160889
208 O -0.031835 -1.25898 -0.227261
209 H -0.261858 -0.101732 0.124248
210 H -0.0648893 1.24142 0.0454819
211 O -0.636614 0.34658 1.6132
212 H 0.669507 0.219833 -1.88007
213 H -0.167933 -0.399749 0.143743
214 O -0.0874753 -0.505023 0.829564
215 H 0.126021 0.356207 -0.690625
216 H -0.221117 0.13203 -0.195984
217 O 1.59218 0.859499 1.56417
218 H -0.270655 0.0748523 -0.00623003
219 H -1.20418 -1.32787 -1.87285
220 O 0.853962 0.0753121 -0.468
221 H -0.288179 -0.629279 0.0201157
222 H -0.393156 0.330908 0.434458
223 O -0.397044 -0.42987 -0.702907
224 H -0.0307728 0.669355 0.316019
225 H 0.246309 0.284341 0.326998
226 O 1.04893 -0.196545 0.421956
227 H -1.14691 -0.545547 -0.734876
228 H 0.439904 0.703646 0.536708
229 O -0.413235 0.0858454 -0.294501
230 H -0.119956 0.170218 0.0615358
231 H 0.466877 -0.0635578 0.365426
232 O -0.00569739 0.112353 -0.059448
233 H -0.298452 -0.305766 0.158392
234 H 0.16583 0.014351 0.343007
235 O -0.730745 -0.73243 -1.38261
236 H 0.566422 0.351356 1.01895
237 H 0.131277 0.281225 0.0921155
238 O 0.291808 0.329724 -0.607125
239 H 0.191823 0.533024 -0.0585978
240 H -0.470146 -0.537804 0.472707
241 Li 0.566495 0.368383 0.293695
242 Li 0.26116 -0.00854444 -0.575938
243 Li -0.953223 0.26591 -0.119954
244 Li 0.43824 -0.164008 0.0734167
245 Cl -0.172971 -0.0828145 -0.00997227
246 Cl 0.287601 0.361484 0.277811
247 Cl 0.0196011 -0.183247 0.402321
248 Cl 0.0104097 -0.0167335 0.22288
ITEM: TIMESTEP
1
ITEM: NUMBER OF ATOMS
248
ITEM: BOX BOUNDS pp pp pp
0.0000000000000000e+00 1.3867400000000000e+01
0.0000000000000000e+00 1.3867400000000000e+01
0.0000000000000000e+00 1.3867400000000000e+01
ITEM: ATOMS id element fx fy fz
1 O -0.698786 -2.09218 0.442098
2 H 0.515442 1.66315 0.2215
3 H -0.0198088 0.688903 -0.36499
4 O 1.13024 0.747742 -0.739263
5 H -0.475602 -0.629567 -0.139123
6 H -0.418071 0.142847 0.527571
7 O 0.410792 0.468914 -0.412135
8 H 0.00893007 -0.407645 -0.14057
9 H -0.273002 0.182958 0.368061
10 O 0.391999 -0.688766 -1.7663
11 H -1.24456 0.517619 1.29152
12 H 0.558328 -0.244965 0.788698
13 O 2.71844 0.464408 0.671619
14 H -1.06652 -1.34089 -1.51935
15 H -1.51695 1.10879 0.812907
16 O 0.81979 0.443295 0.247222
17 H -0.30247 0.00161103 -0.23561
18 H -0.72135 -0.508827 -0.19384
19 O -0.395139 -0.18095 -1.41352
20 H 0.40687 0.160869 1.71389
21 H -0.0346162 0.0665737 -0.344109
22 O -0.853882 0.235048 -1.83173
23 H 0.788618 0.189109 1.73478
24 H -0.236943 -0.107878 -0.090569
25 O 2.66475 1.61474 -0.230634
26 H -0.987231 -1.37787 -1.23111
27 H -1.43589 -0.34123 1.16467
28 O -0.308699 -0.154137 -0.0775326
29 H 0.151369 -0.162533 -0.108327
30 H 0.183023 0.466978 0.152257
31 O -1.03972 -0.0401448 0.483501
32 H 0.108079 0.047478 -0.524674
33 H 0.794945 0.0133584 -0.130526
34 O -0.00448718 0.847997 2.27214
35 H 0.283353 -1.1102 -2.14492
36 H -0.00516494 0.0447844 0.430102
37 O -0.902224 -0.835326 0.729229
38 H 0.214768 0.34237 -0.161915
39 H 0.523539 0.569323 -0.245754
40 O -1.15389 1.09596 0.585604
41 H 0.324552 -0.722701 -0.0267484
42 H 1.00084 -0.0886229 -0.717811
43 O 0.56166 -0.763178 1.30021
44 H -0.123461 0.145893 -0.857636
45 H 0.00579183 0.581477 0.0567684
46 O -1.80163 0.235995 1.71071
47 H 0.301528 0.0608323 -0.297896
48 H 2.04214 -0.545455 -1.29704
49 O -1.27758 0.207757 0.25021
50 H 0.836121 0.103725 0.0923538
51 H 0.225943 -0.0541634 -0.355696
52 O 0.125645 -0.0734374 -0.665202
53 H -0.0110265 -0.012856 0.250416
54 H -0.231454 0.150355 0.513517
55 O 0.340582 -2.00837 -0.992185
56 H -0.300313 -0.162311 -0.290754
57 H -0.0446939 2.05378 1.28469
58 O -0.827194 0.913875 0.870996
59 H -0.127413 -0.17875 0.0686521
60 H 0.877335 -0.526475 -1.08998
61 O 0.0796514 -0.371705 -1.2407
62 H -0.345814 -0.221512 0.676114
63 H 0.0750637 0.544394 0.56285
64 O -0.395381 1.86138 -0.34448
65 H 0.12857 -0.24537 0.182894
66 H 0.35762 -1.31157 0.351357
67 O 0.473682 0.484672 -0.274315
68 H -0.24058 -0.0954454 0.305496
69 H 0.432437 -0.23463 -0.04005
70 O 0.72297 1.34506 0.290251
71 H 0.440376 -0.772758 -0.55568
72 H -1.23556 -0.812135 0.268884
73 O 1.48072 1.17222 -1.64839
74 H 0.183648 -0.181777 0.234334
75 H -1.81538 -0.905513 1.4033
76 O -0.974158 0.598792 0.318542
77 H 0.313448 -1.42914 -0.51097
78 H 0.811394 0.865755 -0.157078
79 O 0.745998 -1.14766 -0.467438
80 H -0.625681 -0.0845463 0.624377
81 H 0.188617 0.653082 -0.274779
82 O 0.269078 1.23639 1.5735
83 H 0.038295 -0.831031 -0.783195
84 H -0.269041 -0.242361 -0.673948
85 O 0.313524 1.30535 -0.541384
86 H 0.469448 -1.27767 0.204512
87 H -0.65379 -0.369453 -0.0303186
88 O -0.673831 -0.560787 -0.220234
89 H -0.0647045 0.804157 -0.495979
90 H 0.690349 -0.55947 0.849781
91 O 0.0351413 -0.755283 -1.2989
92 H -0.189122 0.133411 -0.0467464
93 H 0.264569 0.520448 1.50442
94 O -0.589932 -2.17438 -0.307525
95 H -0.314229 -0.381323 0.0258204
96 H 0.6534 2.05399 0.761481
97 O -2.28114 2.12418 0.812116
98 H 1.33968 -1.44556 -0.636804
99 H 0.898281 -0.313172 -0.246634
100 O -0.557357 0.67568 0.509882
101 H -0.421247 0.423989 0.514462
102 H 0.579792 -0.869326 -0.802003
103 O 0.54096 -1.98412 -1.1669
104 H -0.536841 1.28557 -0.583441
105 H 0.0259748 1.18487 1.59277
106 O -1.29659 -1.12991 -0.161952
107 H 0.213369 0.397383 -0.0491844
108 H 0.462328 0.45329 -0.611399
109 O -0.916683 0.712463 -0.0275398
110 H 0.624178 -0.416764 -0.26197
111 H 0.23892 -0.342028 0.164098
112 O -1.49655 -0.814341 0.556024
113 H 0.485992 0.491485 -0.596466
114 H 0.993054 0.717954 0.108666
115 O -0.0302161 -1.01716 -1.68663
116 H 0.0179668 0.936492 1.70493
117 H -0.162203 0.193462 -0.25466
118 O 1.34403 -1.02397 -0.262159
119 H -1.20161 1.55859 0.459288
120 H 0.532468 -0.339165 -0.450602
121 O -0.238058 -0.0554117 1.97335
122 H 0.0106916 0.764351 -0.302125
123 H -0.207506 -0.503197 -1.53366
124 O 0.628566 -0.352114 0.740527
125 H -0.535356 0.0129788 -0.348469
126 H -0.430277 0.281191 -0.240929
127 O 0.124468 1.60615 0.62858
128 H 0.204252 -0.965013 -0.0250245
129 H -0.155493 -0.730981 -0.594954
130 O 1.11994 -0.0773862 -0.555448
131 H -0.990358 0.143717 0.0637127
132 H -0.557037 -0.0367822 0.1048
133 O 0.963276 -0.666902 -0.353012
134 H -0.051543 0.47905 0.528951
135 H -0.949762 0.311087 -0.316658
136 O 0.503953 0.953949 0.277483
137 H -0.879992 -0.491126 -0.113503
138 H 0.281861 -0.551993 -0.0122386
139 O 2.95111 0.619506 -0.743266
140 H -1.3946 -0.420837 -0.572619
141 H -1.02336 -0.630307 1.21663
142 O 0.0687957 -0.546412 -1.44951
143 H 0.220066 0.223427 0.00166514
144 H -0.421566 0.103417 1.93394
145 O -0.571268 1.09182 -0.0754264
146 H 0.315417 -0.842042 -0.683371
147 H -0.0859046 -0.0826286 0.373752
148 O 0.3809 -0.84238 -0.856867
149 H -0.212665 -0.00149567 0.0732404
150 H -0.424473 1.02278 0.802418
151 O -0.791763 1.11122 -0.846292
152 H -0.0511918 0.101835 0.781826
153 H 0.906884 -0.919374 -0.129155
154 O -0.301149 0.839792 0.00902023
155 H -0.0856507 -0.458143 -0.514184
156 H 0.57341 -0.674828 0.421061
157 O 1.00828 0.530461 -0.753617
158 H -0.657004 -0.487141 0.504146
159 H -0.241734 0.251029 0.199443
160 O 0.606791 -0.490728 2.25937
161 H -0.690107 0.762212 -2.07031
162 H 0.149288 -0.318921 -0.0737931
163 O -0.368791 -0.352715 -0.445447
164 H 0.229729 0.570237 -0.165008
165 H 0.426143 -0.0955459 0.551397
166 O -1.23136 -0.118301 0.445976
167 H 0.0838894 0.0883673 -0.223479
168 H 1.03358 -0.330068 -0.00513062
169 O 0.181136 0.195358 -1.09813
170 H -0.494894 -0.267422 0.7293
171 H 0.396219 0.0266349 0.300333
172 O -0.526715 0.108193 2.10401
173 H 0.770341 -0.497105 -1.22439
174 H -0.170563 0.326482 -0.967896
175 O -0.860437 -1.46561 1.3883
176 H -0.251507 -0.748859 -0.721997
177 H 0.810163 2.09567 -0.495581
178 O 2.17178 -2.21757 0.672075
179 H -0.499616 0.347235 -0.0517761
180 H -1.26978 1.26417 -0.274763
181 O 0.0377548 0.0413618 1.19444
182 H 0.102689 -0.540384 0.239113
183 H -0.324255 -0.00285164 -0.993054
184 O -0.348611 -0.0834254 0.34011
185 H -0.0211503 0.875041 0.224195
186 H 0.394906 -1.16702 -0.256417
187 O 0.305161 -2.63135 1.09764
188 H 0.0680904 0.5089 -0.769502
189 H -0.712799 1.78488 -0.400163
190 O -0.379025 0.118407 -0.878138
191 H 0.21886 0.656072 0.82703
192 H 0.638595 -0.886037 0.0870434
193 O 0.318299 -1.07313 -0.885029
194 H 0.186629 -0.0822539 0.380696
195 H -0.585948 1.18565 0.278032
196 O 1.4029 -0.147094 1.47298
197 H -1.28366 -0.54504 -0.707113
198 H -0.0369053 0.628616 -0.788744
199 O 0.549265 0.0942165 1.43911
200 H 0.0401038 0.198899 -0.318334
201 H -0.236848 -0.202717 -0.261973
202 O 0.114384 -0.748598 0.134036
203 H -0.101612 0.373589 -0.204885
204 H -0.0956123 0.372536 0.189638
205 O 0.230815 1.09117 -0.185774
206 H -1.52534 -0.258732 0.00369288
207 H 1.33987 -0.639635 0.49401
208 O 1.15069 0.11701 -0.880626
209 H -0.807522 -0.283735 0.382788
210 H -0.372224 0.00190329 0.461534
211 O -1.05131 -1.80246 -1.27955
212 H -0.0504654 0.261326 0.218165
213 H 0.724214 0.980617 0.708796
214 O -2.07245 0.511966 -0.888524
215 H 1.60197 -0.934235 1.02097
216 H 0.472168 0.395646 -0.138769
217 O 0.403386 1.21924 1.36661
218 H 0.451758 -0.237299 -0.466812
219 H -0.586893 -1.17712 -0.947826
220 O 1.2188 -0.236657 0.172014
221 H -0.60986 -0.377652 0.0442026
222 H -0.389686 0.283071 -0.288044
223 O -0.644534 -0.22345 -0.408139
224 H 0.0799304 0.275105 0.362876
225 H 0.537972 -0.047081 0.00804706
226 O -0.34036 1.19078 1.1231
227 H 0.158289 -0.0136861 -0.807594
228 H 0.295122 -0.930057 -0.488145
229 O 1.39678 2.227 -0.0647873
230 H 0.0708747 -0.821178 -0.00142294
231 H -1.25843 -1.16421 -0.337599
232 O 2.2073 2.41028 1.64315
233 H -1.79536 -1.70518 -1.92771
234 H -0.592569 -1.07789 0.127044
235 O 0.739524 -1.23508 -0.627566
236 H 0.0569524 -0.375031 -0.158188
237 H -0.65084 1.33065 0.737698
238 O 0.127923 -0.571709 0.638616
239 H -1.09414 -0.279585 0.425554
240 H 0.870227 0.53894 -0.894617
241 Li -0.135783 0.725011 0.150294
242 Li 0.298527 0.242691 -0.697301
243 Li -0.411919 1.18325 0.112131
244 Li -0.115201 0.235273 0.128644
245 Cl 0.135791 -0.143031 -0.166097
246 Cl 0.0855341 -0.0186612 0.102967
247 Cl -0.217494 -0.055424 0.046023
248 Cl -0.335689 0.374067 0.240062
ITEM: TIMESTEP
2
ITEM: NUMBER OF ATOMS
248
ITEM: BOX BOUNDS pp pp pp
0.0000000000000000e+00 1.3867400000000000e+01
0.0000000000000000e+00 1.3867400000000000e+01
0.0000000000000000e+00 1.3867400000000000e+01
ITEM: ATOMS id element fx fy fz
1 O -0.479255 -0.200241 -0.605413
2 H 0.241167 0.649724 0.528143
3 H 0.283101 -0.0134143 0.264589
4 O -0.70916 -1.39833 2.47883
5 H 0.294116 0.661238 -1.36792
6 H 0.388492 0.275035 -0.869277
7 O 0.910813 1.03535 -0.786636
8 H -0.78846 -0.584009 0.327725
9 H -0.24243 -0.0699262 0.405795
10 O -1.29564 0.729916 -1.70452
11 H 1.17284 -0.552342 0.204866
12 H 0.0146499 -0.0273065 0.935857
13 O 1.48408 0.902698 1.44458
14 H -0.142148 -0.225885 0.0247137
15 H -1.21497 -0.819417 -1.13252
16 O 0.0686065 0.0768417 0.537633
17 H 0.0791846 -0.0155041 -0.370057
18 H -0.0878577 -0.0639301 -0.00297719
19 O 0.953805 -0.890179 3.36616
20 H -1.54816 -0.270229 -1.93928
21 H 0.50373 0.875831 -1.38126
22 O 0.402811 0.802413 0.374522
23 H -0.0154914 0.228646 0.53005
24 H -0.206983 -0.952481 -0.76972
25 O -1.90002 -1.72775 0.678166
26 H 1.0773 1.317 0.91964
27 H 0.819422 0.253942 -1.06706
28 O -0.732155 0.810314 -1.34488
29 H 0.687828 -0.336765 0.915545
30 H 0.0452423 -0.812479 0.109186
31 O 0.873629 1.27217 1.59926
32 H 0.0809041 -0.445433 -0.633352
33 H -0.837909 -1.20157 -0.868902
34 O 0.414688 1.03922 0.27937
35 H -0.11483 -0.424279 -0.383747
36 H -0.214965 -0.636109 0.322039
37 O 1.16213 0.882958 -1.38713
38 H -0.488674 -0.307643 0.607448
39 H -0.166866 -0.608695 0.481465
40 O 0.593086 -0.493924 -0.445708
41 H -0.509774 0.481918 -0.414935
42 H 0.382817 -0.334971 0.372783
43 O 0.0661808 -0.632055 -0.703834
44 H 0.0451648 0.236002 0.02669
45 H 0.189464 0.595408 0.371872
46 O -0.512518 -0.0320299 0.0603118
47 H 0.172132 0.0430569 -0.131345
48 H 0.26398 0.0386608 0.270963
49 O 1.06623 0.184901 -1.58957
50 H -0.743737 -0.473839 -0.0414165
51 H -0.492301 0.0355089 1.60378
52 O 0.537419 0.395929 -0.925708
53 H -0.49841 -0.00877408 0.350382
54 H 7.49585e-05 -0.153111 0.249375
55 O 1.07316 -0.300868 0.24149
56 H -0.664826 0.0526722 0.0245297
57 H -0.275069 0.404298 0.0434739
58 O 0.38002 -0.435293 0.886305
59 H -0.335336 0.235228 -0.639477
60 H 0.205488 0.0101925 -0.499975
61 O 0.304848 0.778282 -0.0295935
62 H -0.30327 -0.920893 0.331302
63 H 0.075318 0.203891 -0.293263
64 O -0.123921 0.0955606 -0.0133267
65 H 0.0192231 -0.327824 0.0287723
66 H 0.0692 0.515829 -0.119333
67 O -0.409928 0.037484 -2.31934
68 H -0.0651967 -0.238312 0.00169198
69 H 0.642845 0.457275 1.97762
70 O -0.926325 -1.22451 0.590229
71 H 0.176656 1.01369 0.579118
72 H 0.689786 0.20328 -1.00861
73 O -0.615412 0.369887 -0.817797
74 H 0.580079 -0.15867 0.440027
75 H -0.486528 -0.169002 0.335501
76 O -0.0641144 -0.448484 -0.595806
77 H -0.107208 0.463075 0.55301
78 H 0.0253179 0.214718 0.205869
79 O -4.34595 0.391274 -0.841356
80 H 1.05984 0.753979 -0.164987
81 H 2.96325 -1.08232 0.857331
82 O 0.787999 0.908785 1.44805
83 H -1.04341 -0.698868 -1.90119
84 H 0.219773 -0.14316 0.229998
85 O 1.45719 -4.00416 1.32097
86 H -1.31125 2.39026 -2.07103
87 H -0.165237 1.49003 0.701973
88 O -1.07277 0.417429 2.25985
89 H 0.846886 -0.148751 -1.61974
90 H -0.270051 -0.0148069 -0.548941
91 O 0.602227 0.0649424 0.471292
92 H -0.420136 -0.0839019 0.0211204
93 H -0.449018 -0.0390573 -0.341518
94 O -0.213996 3.1503 1.70056
95 H 0.181695 -0.0551639 -0.857247
96 H 0.657082 -2.9954 -0.516639
97 O 0.245213 -0.122097 0.483633
98 H 0.458245 -0.29657 -0.824534
99 H -0.670339 0.27695 0.434518
100 O 0.0808084 -0.0872867 -0.208623
101 H 0.42139 -0.0747112 -0.224789
102 H -0.458564 0.40954 0.506313
103 O -3.44447 0.829286 1.04047
104 H -0.266489 0.339293 0.142224
105 H 3.55354 -1.09027 -1.10499
106 O 1.49667 0.507035 1.03956
107 H -0.991441 -0.0695102 -0.973661
108 H -0.311153 -0.414171 0.0814741
109 O 0.0163768 -0.214724 0.295469
110 H -0.269888 0.761194 -0.21617
111 H 0.416682 -0.679196 0.232427
112 O 0.30563 -2.46168 0.64951
113 H -0.16048 1.43634 -1.11808
114 H 0.114626 1.29846 0.672407
115 O -0.374219 0.835263 0.425251
116 H 0.896201 -0.535401 -0.385934
117 H -0.77292 -0.323409 -0.0381538
118 O 0.173662 -0.258328 0.523689
119 H -0.153581 -0.108651 -0.168925
120 H 0.205894 0.418766 -0.564443
121 O 0.247045 -0.411707 0.807368
122 H -0.178928 0.676303 -0.990642
123 H -0.199284 -0.362536 0.174186
124 O -2.00515 1.09837 1.06266
125 H 1.07415 -0.458733 -1.37222
126 H 1.05701 -0.66084 0.0808239
127 O -0.0310041 -0.285481 -0.569245
128 H -0.163907 -0.268091 0.0803629
129 H -0.234471 0.0215939 0.364977
130 O 0.0449513 0.711671 -1.20463
131 H 0.145078 0.449367 -0.259897
132 H 0.124498 -1.00845 1.40921
133 O 0.129379 3.23032 0.319791
134 H -0.265062 -2.19439 -0.50234
135 H 0.245809 -0.884733 0.204251
136 O -0.476374 -0.0326773 0.504224
137 H -0.208386 0.193637 -0.468465
138 H 0.205932 -0.0519259 -0.393966
139 O -1.07886 -0.378172 0.80923
140 H 0.1389 0.301118 -0.0924104
141 H 1.33874 -0.0263762 -1.2088
142 O 0.0085757 0.09659 0.326341
143 H 0.648238 0.84917 -0.507821
144 H -1.02377 -0.70687 0.519034
145 O 0.598271 0.233829 0.728486
146 H -0.584249 -0.52951 -0.72402
147 H -0.269396 -0.147113 -0.194204
148 O 0.0721928 -0.0573648 -0.658545
149 H -0.0497604 0.126324 0.382288
150 H 0.249992 -0.16738 0.382691
151 O 1.79795 -1.57197 -0.423028
152 H -0.537603 0.566604 -0.454609
153 H -1.21739 0.787437 1.05909
154 O 0.907601 -1.02053 0.737436
155 H -0.0255398 0.348712 -0.30799
156 H -0.876856 0.566618 -0.655109
157 O 0.632129 -3.35117 -1.32469
158 H 0.193855 -0.0306607 -0.0805308
159 H -0.688363 3.34338 1.67615
160 O -0.710136 -0.821349 1.91971
161 H 0.456324 1.01014 -1.9545
162 H 0.0678467 -0.0281408 0.29796
163 O 1.60559 2.23441 0.117814
164 H -0.728539 -0.857028 0.957562
165 H -0.658833 -1.58332 -0.880932
166 O 0.346712 -0.6137 0.954139
167 H -0.00707315 0.474226 -0.448936
168 H -0.254828 0.253554 -0.195338
169 O -1.80281 0.745853 0.813069
170 H 0.44268 0.300569 0.126538
171 H 1.30442 -0.693348 -1.09113
172 O 0.147404 0.229065 -0.877493
173 H -0.556852 -0.443771 0.795312
174 H 0.0604419 0.156556 0.537673
175 O -2.62337 0.158081 1.05479
176 H 0.938646 -0.405898 -1.11163
177 H 2.16001 0.264961 0.186695
178 O 1.51644 0.793168 -1.05351
179 H -0.0796079 -0.154489 0.423992
180 H -1.07581 -0.34711 0.183135
181 O -1.12724 1.15981 -0.360076
182 H 0.948376 -0.866647 -0.400274
183 H 0.00105855 0.0835679 0.619012
184 O -0.375634 0.487679 0.486406
185 H 0.298207 -0.527302 -0.196017
186 H -0.041899 0.226181 -0.0808593
187 O -0.0751145 0.723826 0.426915
188 H 0.345899 -0.691687 -0.266696
189 H -0.390605 -0.0374875 -0.485469
190 O -0.624827 -0.956099 -3.1315
191 H 0.153705 -0.0640632 2.3976
192 H 0.215576 1.34687 0.560717
193 O -0.0642931 -0.941779 0.573535
194 H 0.0966306 -0.370366 0.0261619
195 H 0.229205 2.0063 -0.572717
196 O -0.338526 1.24358 -0.995598
197 H 0.127539 -0.304898 0.268732
198 H -0.22428 -1.15199 0.439838
199 O -1.05016 0.24664 -0.934514
200 H 0.676269 -0.577919 1.19058
201 H 0.18179 0.311849 -0.522488
202 O 0.170319 -0.333858 -1.08806
203 H -0.683729 0.396752 1.503
204 H -0.0253141 -0.0298693 0.0906501
205 O 2.0599 -0.463714 0.691323
206 H -1.81818 -0.867065 -0.320517
207 H -0.69665 1.21889 -0.145397
208 O 0.793324 0.489236 -0.417498
209 H 0.0899158 -0.360159 -0.4477
210 H -0.634468 -0.278602 0.771229
211 O 0.945091 1.97688 -0.0777007
212 H -0.241945 -0.555903 0.337904
213 H -0.667876 -0.994407 -0.133841
214 O -1.51844 -0.500537 -1.79928
215 H 1.78915 -0.109302 1.51365
216 H -0.229314 0.679686 0.15316
217 O 1.28248 -0.228691 0.152452
218 H -1.08022 0.590926 -0.20521
219 H 0.243991 -0.315239 -0.0128171
220 O 0.634498 0.178824 -0.58704
221 H -0.92159 -0.511124 0.551476
222 H 0.342921 0.176042 -0.343355
223 O 1.97599 -0.311496 -0.210933
224 H -0.432297 0.624631 0.504989
225 H -1.10877 -0.301261 -0.426173
226 O 0.44816 0.673223 0.491944
227 H -0.602923 -0.0157769 0.00695506
228 H -0.134851 -0.707726 -0.704606
229 O -0.168733 -0.886565 -1.52218
230 H -0.638674 0.769074 -0.0963399
231 H 0.923858 -0.512925 1.1806
232 O -1.99184 -0.313851 1.62606
233 H 0.872439 0.347863 -0.0707898
234 H 1.3897 0.302248 -1.28694
235 O -0.373759 0.592186 0.34476
236 H -0.258084 -0.137886 -0.156508
237 H 0.584257 -0.751143 -0.0925177
238 O -1.06026 0.257643 0.107894
239 H 0.286292 -0.0322035 -0.0217234
240 H 0.501952 -0.84732 -0.23342
241 Li 0.0451514 -0.356471 0.0551161
242 Li -0.584105 -0.0319498 -0.156906
243 Li -0.316898 0.253984 0.208795
244 Li -0.377042 -0.0726449 0.249907
245 Cl -0.0369405 0.278318 -0.00932592
246 Cl 0.327262 -0.416513 0.294198
247 Cl 0.191743 -0.270351 0.0738867
248 Cl 0.255516 0.0741989 0.0990886
ITEM: TIMESTEP
3
ITEM: NUMBER OF ATOMS
248
ITEM: BOX BOUNDS pp pp pp
0.0000000000000000e+00 1.3867400000000000e+01
0.0000000000000000e+00 1.3867400000000000e+01
0.0000000000000000e+00 1.3867400000000000e+01
ITEM: ATOMS id element fx fy fz
1 O 0.625535 -0.398417 0.90227
2 H 0.341289 0.246681 0.145284
3 H -0.964018 0.291598 -0.902278
4 O -0.944218 -0.270157 0.372842
5 H 1.13666 0.813683 -0.235043
6 H -0.0860461 -0.588721 -0.119604
7 O 0.652636 -0.972218 -0.15067
8 H 0.00365035 0.452774 -0.0377398
9 H -0.423745 0.358247 -0.229886
10 O 0.113142 0.449173 -1.25451
11 H -0.22757 -0.66525 1.54663
12 H 0.297465 0.232277 -0.461675
13 O -1.08228 0.159017 1.13213
14 H -0.282128 0.664235 -0.774467
15 H 0.774312 -0.686522 -0.741569
16 O -0.413214 1.04064 -0.0864376
17 H 0.324425 -0.0602347 0.731139
18 H 0.185701 -0.858979 -0.765136
19 O 0.45991 2.72806 1.05661
20 H -0.011843 -0.2055 -0.804738
21 H -0.577072 -2.63081 -0.0371312
22 O -0.127344 2.22897 -0.266867
23 H 0.0698043 -0.875831 0.33816
24 H 0.14023 -1.49034 0.0202656
25 O 1.24943 0.896779 0.0115026
26 H -0.817334 -0.941784 -0.815696
27 H -0.330174 0.0934942 0.569831
28 O 0.366075 0.233928 -0.579366
29 H 0.0450689 -0.0725415 0.267493
30 H -0.472469 -0.0334618 0.256517
31 O -0.159909 -0.274917 0.56432
32 H 0.396781 0.564036 0.243387
33 H -0.275278 -0.342792 -1.04323
34 O -1.8265 -1.81861 -0.677381
35 H 1.54985 1.40991 0.721254
36 H 0.0884627 0.25806 0.108518
37 O 0.07905 0.652538 0.0636906
38 H -1.21359 0.0128144 0.0782015
39 H 0.728382 -0.815012 -0.0944948
40 O 0.313201 -0.72121 0.265496
41 H -0.290412 -0.303078 0.313141
42 H 0.286246 0.687623 -0.464468
43 O 0.928 -0.849577 2.29782
44 H -0.48047 0.0457154 -0.176866
45 H -0.565712 0.687992 -2.35594
46 O 0.139377 0.147303 -1.33037
47 H -0.257138 -0.0225945 0.200185
48 H -0.202526 0.191681 1.37928
49 O 1.28307 -0.27507 0.531248
50 H -1.6237 -0.511282 0.220144
51 H 0.42369 0.351382 -0.907279
52 O -0.595885 0.913586 -0.36767
53 H 0.24039 -0.258045 0.0052014
54 H 0.345868 -0.7979 0.391776
55 O -1.50907 -0.522741 0.654042
56 H 1.09185 0.298435 -1.00974
57 H 0.130122 0.175008 0.371726
58 O 1.98559 0.773095 -0.447665
59 H -0.00706764 -0.423057 -0.615316
60 H -1.81491 -0.178712 0.999199
61 O 0.240564 -0.0892986 -1.18249
62 H -0.0183183 0.892645 -0.327141
63 H -0.0137696 -0.667207 1.7366
64 O 1.3013 -0.428398 -0.600434
65 H -0.824574 -0.92636 -0.391771
66 H -0.603088 1.02231 0.887203
67 O 0.0199106 -0.156907 1.62194
68 H 0.713035 0.882436 -0.95664
69 H -0.509758 -0.574485 -0.750728
70 O -0.220049 0.51232 -0.11764
71 H 0.18055 -0.302858 -0.150336
72 H 0.107692 -0.225465 -0.12411
73 O 0.0219268 -0.0720114 1.50731
74 H 0.240361 -0.0374403 -2.09322
75 H 0.0037655 0.0375644 0.715094
76 O -1.02478 -0.95366 -1.07754
77 H 1.06171 0.891015 1.38096
78 H 0.053185 -0.163172 -0.397774
79 O -0.177497 -0.481944 -0.0965092
80 H 0.0552558 0.327761 0.553199
81 H 0.276322 0.325033 -0.65047
82 O 0.827876 -0.777002 0.362261
83 H -0.208115 0.293357 -0.569753
84 H 0.185057 0.352161 -0.0101841
85 O -0.864418 1.71056 -0.850443
86 H 0.878363 -1.38212 1.31832
87 H -0.549525 -0.469657 0.0727091
88 O -0.203895 1.419 -1.04675
89 H -0.526602 -1.20033 0.796101
90 H 0.801694 -0.146603 -0.335398
91 O -0.856987 0.00812697 0.859821
92 H 0.650146 0.365802 -1.10124
93 H 0.273232 -0.43317 0.269423
94 O -0.773387 -0.0927728 0.40661
95 H 0.926801 0.342853 -0.279018
96 H -0.102746 0.0368393 0.175875
97 O 1.70657 -1.93058 -0.864443
98 H -1.21388 0.832335 -0.0730442
99 H -0.262966 1.11632 1.17113
100 O 1.21667 -0.149252 -2.27293
101 H -0.333663 1.17466 0.558079
102 H -0.585892 -0.645974 1.30408
103 O 0.293471 -0.116244 0.224052
104 H 0.0313356 0.0659378 -0.65554
105 H -0.279564 0.505834 0.414246
106 O 0.934954 0.914198 -1.74335
107 H -0.114269 -0.128134 0.754937
108 H -0.67004 -0.412605 0.831854
109 O 1.04133 -0.979057 -0.0783322
110 H -0.626142 0.221021 -0.219222
111 H -0.217838 0.373161 -0.0104879
112 O -0.474504 0.506261 -0.632598
113 H -0.299397 0.0382998 -0.651296
114 H 0.478715 0.0485881 1.11705
115 O 1.41157 0.204309 -0.623355
116 H 0.171347 0.475321 0.00379566
117 H -1.68833 -0.590044 0.54357
118 O 0.856436 -0.893408 -1.9176
119 H -0.747816 0.899191 0.751844